 VARIABLES = "x", "y", "u", "v", "p"
 ZONE F=POINT, I=          80, J=          80
  6.250000093132257E-003  6.250000093132257E-003  1.847100643764975E-005
 -1.847051634050862E-005  4.284937399979776E-002
  1.875000027939677E-002  6.250000093132257E-003  1.245868143261252E-004
 -8.763931879407015E-005  4.286561173408122E-002
  3.125000046566129E-002  6.250000093132257E-003  3.445945696415684E-004
 -1.323533523587452E-004  4.286994152618022E-002
  4.375000065192580E-002  6.250000093132257E-003  6.259194292656398E-004
 -1.489505045459437E-004  4.285217762365470E-002
  5.625000083819032E-002  6.250000093132257E-003  9.191065568893121E-004
 -1.442145464714146E-004  4.280935409422238E-002
  6.875000102445483E-002  6.250000093132257E-003  1.188754749317370E-003
 -1.254152641737127E-004  4.274223608890595E-002
  8.125000121071935E-002  6.250000093132257E-003  1.412574073865711E-003
 -9.839335439168668E-005  4.265326093173495E-002
  9.375000139698386E-002  6.250000093132257E-003  1.578397561773635E-003
 -6.742999512724320E-005  4.254535170384604E-002
  0.106250001583248       6.250000093132257E-003  1.681246660164236E-003
 -3.543127854478166E-005  4.242123371500766E-002
  0.118750001769513       6.250000093132257E-003  1.720791100270480E-003
 -4.138362915452297E-006  4.228306170116062E-002
  0.131250001955777       6.250000093132257E-003  1.699223802511045E-003
  2.566753592520600E-005  4.213225754462555E-002
  0.143750002142042       6.250000093132257E-003  1.619548740572944E-003
  5.395712758900598E-005  4.196949807262552E-002
  0.156250002328306       6.250000093132257E-003  1.484290510370767E-003
  8.123935861756521E-005  4.179480839576526E-002
  0.168750002514571       6.250000093132257E-003  1.294629468280442E-003
  1.083495677379872E-004  4.160772313554059E-002
  0.181250002700835       6.250000093132257E-003  1.049944706444337E-003
  1.362535521436244E-004  4.140748256470683E-002
  0.193750002887100       6.250000093132257E-003  7.477175909953516E-004
  1.658830056641824E-004  4.119323606470178E-002
  0.206250003073364       6.250000093132257E-003  3.837213217206830E-004
  1.980141233965968E-004  4.096423231666298E-002
  0.218750003259629       6.250000093132257E-003 -4.759420737773763E-005
  2.331937486268523E-004  4.071998393074881E-002
  0.231250003445894       6.250000093132257E-003 -5.526130208313658E-004
  2.717087351821414E-004  4.046040254171576E-002
  0.243750003632158       6.250000093132257E-003 -1.138034221298166E-003
  3.135871507151742E-004  4.018590714984184E-002
  0.256250003818423       6.250000093132257E-003 -1.810372869594157E-003
  3.586167980462443E-004  3.989751234660043E-002
  0.268750004004687       6.250000093132257E-003 -2.575502040660000E-003
  4.063678638177177E-004  3.959690354710151E-002
  0.281250004190952       6.250000093132257E-003 -3.438235701319341E-003
  4.562110803827531E-004  3.928650396481801E-002
  0.293750004377216       6.250000093132257E-003 -4.401940453275381E-003
  5.073284164728427E-004  3.896953402497220E-002
  0.306250004563481       6.250000093132257E-003 -5.468163277518485E-003
  5.587183761765952E-004  3.865005961030014E-002
  0.318750004749745       6.250000093132257E-003 -6.636270615477493E-003
  6.092020268978804E-004  3.833302214123425E-002
  0.331250004936010       6.250000093132257E-003 -7.903106600316550E-003
  6.574361141143445E-004  3.802424192568584E-002
  0.343750005122274       6.250000093132257E-003 -9.262681790030727E-003
  7.019304429561790E-004  3.773038652229008E-002
  0.356250005308539       6.250000093132257E-003 -1.070590149531129E-002
  7.410700871077932E-004  3.745889567862942E-002
  0.368750005494803       6.250000093132257E-003 -1.222036567818685E-002
  7.731647444629459E-004  3.721785495635300E-002
  0.381250005681068       6.250000093132257E-003 -1.379022075949199E-002
  7.964512838056430E-004  3.701581927832370E-002
  0.393750005867332       6.250000093132257E-003 -1.539596604009518E-002
  8.090458174558413E-004  3.686156837651282E-002
  0.406250006053597       6.250000093132257E-003 -1.701472550196718E-002
  8.094570109067185E-004  3.676375648866978E-002
  0.418750006239861       6.250000093132257E-003 -1.862093732380561E-002
  7.964904687540316E-004  3.673063471559092E-002
  0.431250006426126       6.250000093132257E-003 -2.018645457128893E-002
  7.687555176541064E-004  3.676978530020187E-002
  0.443750006612390       6.250000093132257E-003 -2.167999411668466E-002
  7.245066846112898E-004  3.688769642743719E-002
  0.456250006798655       6.250000093132257E-003 -2.306778175504843E-002
  6.629984442596087E-004  3.708909685000109E-002
  0.468750006984919       6.250000093132257E-003 -2.431521556650965E-002
  5.841486842474672E-004  3.737659686145772E-002
  0.481250007171184       6.250000093132257E-003 -2.538786086555832E-002
  4.882068046108596E-004  3.775041405527074E-002
  0.493750007357448       6.250000093132257E-003 -2.625185773013903E-002
  3.754982359926035E-004  3.820810382252667E-002
  0.506250007543713       6.250000093132257E-003 -2.687456335641822E-002
  2.469147569705905E-004  3.874421680341519E-002
  0.518750007729977       6.250000093132257E-003 -2.722572452676783E-002
  1.039542781012888E-004  3.935009611074638E-002
  0.531250007916242       6.250000093132257E-003 -2.727874445869003E-002
 -5.122456268246502E-005  4.001379752249979E-002
  0.543750008102506       6.250000093132257E-003 -2.701208284958038E-002
 -2.157238049142253E-004  4.072016219635290E-002
  0.556250008288771       6.250000093132257E-003 -2.641070149924189E-002
 -3.859391919724705E-004  4.145108962251426E-002
  0.568750008475035       6.250000093132257E-003 -2.546691688862364E-002
 -5.581202113435977E-004  4.218603479154743E-002
  0.581250008661300       6.250000093132257E-003 -2.418085261271461E-002
 -7.282102315169874E-004  4.290251719790858E-002
  0.593750008847564       6.250000093132257E-003 -2.256181093267388E-002
 -8.910872595306457E-004  4.357672187511631E-002
  0.606250009033829       6.250000093132257E-003 -2.063036985114024E-002
 -1.040597683336632E-003  4.418450188651852E-002
  0.618750009220093       6.250000093132257E-003 -1.841896549960173E-002
 -1.171037256081225E-003  4.470279584916251E-002
  0.631250009406358       6.250000093132257E-003 -1.597096561680090E-002
 -1.277179044214568E-003  4.511086705825806E-002
  0.643750009592623       6.250000093132257E-003 -1.334052133228673E-002
 -1.353467188343698E-003  4.539144824220266E-002
  0.656250009778887       6.250000093132257E-003 -1.059162119711474E-002
 -1.395620890029856E-003  4.553215337967245E-002
  0.668750009965152       6.250000093132257E-003 -7.795381940452261E-003
 -1.400793670682075E-003  4.552647471745506E-002
  0.681250010151416       6.250000093132257E-003 -5.026952212452693E-003
 -1.367801082479315E-003  4.537441825123997E-002
  0.693750010337681       6.250000093132257E-003 -2.361770211113412E-003
 -1.297539042876415E-003  4.508271402948061E-002
  0.706250010523945       6.250000093132257E-003  1.286246479765954E-004
 -1.193011364553946E-003  4.466446825254821E-002
  0.718750010710210       6.250000093132257E-003  2.380747432708155E-003
 -1.059269496738229E-003  4.413829489068008E-002
  0.731250010896474       6.250000093132257E-003  4.342902691270361E-003
 -9.030519864581739E-004  4.352697534972250E-002
  0.743750011082739       6.250000093132257E-003  5.978017051074081E-003
 -7.322425473095334E-004  4.285579805326355E-002
  0.756250011269003       6.250000093132257E-003  7.265264252190743E-003
 -5.552043864666875E-004  4.215076615975505E-002
  0.768750011455268       6.250000093132257E-003  8.200308350799936E-003
 -3.800640504689925E-004  4.143687401974073E-002
  0.781250011641532       6.250000093132257E-003  8.794189550023946E-003
 -2.140702521517909E-004  4.073663737919301E-002
  0.793750011827797       6.250000093132257E-003  9.071081659798357E-003
 -6.310675446439889E-005  4.006900727883801E-002
  0.806250012014061       6.250000093132257E-003  9.065264575606979E-003
  6.860538921239228E-005  3.944872895216607E-002
  0.818750012200326       6.250000093132257E-003  8.817700102905675E-003
  1.786066172873780E-004  3.888614243038226E-002
  0.831250012386590       6.250000093132257E-003  8.372591575823561E-003
  2.661161798762637E-004  3.838736926231418E-002
  0.843750012572855       6.250000093132257E-003  7.774250473415883E-003
  3.318077388773481E-004  3.795479620222866E-002
  0.856250012759119       6.250000093132257E-003  7.064506337048452E-003
  3.774904123857090E-004  3.758775432041944E-002
  0.868750012945384       6.250000093132257E-003  6.280810072705196E-003
  4.057343204998530E-004  3.728329753897948E-002
  0.881250013131648       6.250000093132257E-003  5.455121091408703E-003
  4.194612031486277E-004  3.703700074514502E-002
  0.893750013317913       6.250000093132257E-003  4.613648914457749E-003
  4.214993602674860E-004  3.684371512059224E-002
  0.906250013504177       6.250000093132257E-003  3.777537032466111E-003
  4.140864954122445E-004  3.669822773280107E-002
  0.918750013690442       6.250000093132257E-003  2.964610301734589E-003
  3.983033797458715E-004  3.659576530229365E-002
  0.931250013876706       6.250000093132257E-003  2.192313538929032E-003
  3.734490404453643E-004  3.653225112044034E-002
  0.943750014062971       6.250000093132257E-003  1.481858459628913E-003
  3.364572433890660E-004  3.650416252307636E-002
  0.956250014249235       6.250000093132257E-003  8.631404791639089E-004
  2.817103236805504E-004  3.650773800283526E-002
  0.968750014435500       6.250000093132257E-003  3.785044454578025E-004
  2.023755343579549E-004  3.653715521371496E-002
  0.981250014621764       6.250000093132257E-003  7.880356550884086E-005
  9.678215028860061E-005  3.658124134485655E-002
  0.993750014808029       6.250000093132257E-003 -9.123432204785650E-006
 -9.263811160275799E-006  3.661881575851757E-002
  6.250000093132257E-003  1.875000027939677E-002  8.775109607017126E-005
 -1.246894526255787E-004  4.283312824292522E-002
  1.875000027939677E-002  1.875000027939677E-002  3.885227229988238E-004
 -3.882899339635202E-004  4.284939588265188E-002
  3.125000046566129E-002  1.875000027939677E-002  8.888209934316083E-004
 -5.519706414519998E-004  4.284950375483414E-002
  4.375000065192580E-002  1.875000027939677E-002  1.487899691756631E-003
 -6.096870150105490E-004  4.282932448348908E-002
  5.625000083819032E-002  1.875000027939677E-002  2.094752451118428E-003
 -5.834681758456249E-004  4.278723211127972E-002
  6.875000102445483E-002  1.875000027939677E-002  2.637729449492867E-003
 -4.987480376986806E-004  4.272371427146673E-002
  8.125000121071935E-002  1.875000027939677E-002  3.066362646980952E-003
 -3.774940325109919E-004  4.264050531189825E-002
  9.375000139698386E-002  1.875000027939677E-002  3.348889992452680E-003
 -2.366868058730180E-004  4.253982347899972E-002
  0.106250001583248       1.875000027939677E-002  3.468159060681249E-003
 -8.832826099761215E-005  4.242382436965662E-002
  0.118750001769513       1.875000027939677E-002  3.417210530880645E-003
  6.009727646223967E-005  4.229426084306236E-002
  0.131250001955777       1.875000027939677E-002  3.195138057041595E-003
  2.049774298319792E-004  4.215231397730419E-002
  0.143750002142042       1.875000027939677E-002  2.803531848485758E-003
  3.458076325327440E-004  4.199855714381991E-002
  0.156250002328306       1.875000027939677E-002  2.243686727856958E-003
  4.843474001505187E-004  4.183301727245524E-002
  0.168750002514571       1.875000027939677E-002  1.514671650373178E-003
  6.237515968685230E-004  4.165530029072375E-002
  0.181250002700835       1.875000027939677E-002  6.122757948322943E-004
  7.677471317568769E-004  4.146475144252413E-002
  0.193750002887100       1.875000027939677E-002 -4.712367098908218E-004
  9.199267336085583E-004  4.126062613327794E-002
  0.206250003073364       1.875000027939677E-002 -1.746703002127720E-003
  1.083214293832336E-003  4.104225323902459E-002
  0.218750003259629       1.875000027939677E-002 -3.227153270963806E-003
  1.259524661068482E-003  4.080918002585963E-002
  0.231250003445894       1.875000027939677E-002 -4.926612078310595E-003
  1.449604446485100E-003  4.056129494701217E-002
  0.243750003632158       1.875000027939677E-002 -6.858778471623745E-003
  1.653011158468849E-003  4.029893032130326E-002
  0.256250003818423       1.875000027939677E-002 -9.035707283252831E-003
  1.868174702049960E-003  4.002295016113548E-002
  0.268750004004687       1.875000027939677E-002 -1.146656226603323E-002
  2.092490041394993E-003  3.973482878950519E-002
  0.281250004190952       1.875000027939677E-002 -1.415647046887022E-002
  2.322407378864333E-003  3.943672376956601E-002
  0.293750004377216       1.875000027939677E-002 -1.710548430665956E-002
  2.553507356177054E-003  3.913154309574648E-002
  0.306250004563481       1.875000027939677E-002 -2.030765302965193E-002
  2.780567215882513E-003  3.882300279811565E-002
  0.318750004749745       1.875000027939677E-002 -2.375021794523237E-002
  2.997641033713323E-003  3.851566809399160E-002
  0.331250004936010       1.875000027939677E-002 -2.741297328761697E-002
  3.198183411159830E-003  3.821496946143095E-002
  0.343750005122274       1.875000027939677E-002 -3.126783291851613E-002
  3.375192601450831E-003  3.792718485768772E-002
  0.356250005308539       1.875000027939677E-002 -3.527860278242291E-002
  3.521352318215359E-003  3.765937966977537E-002
  0.368750005494803       1.875000027939677E-002 -3.940106887298228E-002
  3.629348564349914E-003  3.741929267527291E-002
  0.381250005681068       1.875000027939677E-002 -4.358342953262340E-002
  3.692000921025076E-003  3.721517384066676E-002
  0.393750005867332       1.875000027939677E-002 -4.776632651851934E-002
  3.701639271539045E-003  3.705557832374944E-002
  0.406250006053597       1.875000027939677E-002 -5.188394753798091E-002
  3.652729351448837E-003  3.694899142332717E-002
  0.418750006239861       1.875000027939677E-002 -5.586659767386518E-002
  3.541551439228575E-003  3.690354761040607E-002
  0.431250006426126       1.875000027939677E-002 -5.964199616008894E-002
  3.364069307299227E-003  3.692677651405109E-002
  0.443750006612390       1.875000027939677E-002 -6.313425018575373E-002
  3.114434856902346E-003  3.702527997929894E-002
  0.456250006798655       1.875000027939677E-002 -6.626550301009886E-002
  2.791550363908328E-003  3.720392901223823E-002
  0.468750006984919       1.875000027939677E-002 -6.896008499961186E-002
  2.397045527411769E-003  3.746556107634761E-002
  0.481250007171184       1.875000027939677E-002 -7.114675362127842E-002
  1.934052372580049E-003  3.781068429882690E-002
  0.493750007357448       1.875000027939677E-002 -7.275940911348394E-002
  1.405731367489806E-003  3.823724448367594E-002
  0.506250007543713       1.875000027939677E-002 -7.373818349450376E-002
  8.175883540752619E-004  3.874023915772520E-002
  0.518750007729977       1.875000027939677E-002 -7.403163146986610E-002
  1.773196682232680E-004  3.931153178771879E-002
  0.531250007916242       1.875000027939677E-002 -7.359867586308233E-002
 -5.050896947791193E-004  3.993976920757497E-002
  0.543750008102506       1.875000027939677E-002 -7.241064841504902E-002
 -1.217102503569546E-003  4.061043674532307E-002
  0.556250008288771       1.875000027939677E-002 -7.045365555492453E-002
 -1.943476765436025E-003  4.130607874564159E-002
  0.568750008475035       1.875000027939677E-002 -6.772959920738110E-002
 -2.668949362401662E-003  4.200684373189627E-002
  0.581250008661300       1.875000027939677E-002 -6.425574143455587E-002
 -3.377808988266989E-003  4.269102409316943E-002
  0.593750008847564       1.875000027939677E-002 -6.006615355007191E-002
 -4.050600537544844E-003  4.333558989060782E-002
  0.606250009033829       1.875000027939677E-002 -5.521547161648868E-002
 -4.663663342624820E-003  4.391708792189458E-002
  0.618750009220093       1.875000027939677E-002 -4.977954580512407E-002
 -5.195728585993448E-003  4.441316041830455E-002
  0.631250009406358       1.875000027939677E-002 -4.385237611363525E-002
 -5.628053410689754E-003  4.480375726194739E-002
  0.643750009592623       1.875000027939677E-002 -3.754627662098071E-002
 -5.939501714088516E-003  4.507213637129986E-002
  0.656250009778887       1.875000027939677E-002 -3.099089428226362E-002
 -6.114204308093138E-003  4.520636378563436E-002
  0.668750009965152       1.875000027939677E-002 -2.432831654035660E-002
 -6.141336388407005E-003  4.520023467340868E-002
  0.681250010151416       1.875000027939677E-002 -1.770847363246628E-002
 -6.015819271560874E-003  4.505387923668030E-002
  0.693750010337681       1.875000027939677E-002 -1.128326664004240E-002
 -5.740184928437848E-003  4.477396534311462E-002
  0.706250010523945       1.875000027939677E-002 -5.199684586526152E-003
 -5.324614017856775E-003  4.437332325151418E-002
  0.718750010710210       1.875000027939677E-002  4.072838685688774E-004
 -4.787037678808502E-003  4.387007188644730E-002
  0.731250010896474       1.875000027939677E-002  5.421560100089515E-003
 -4.152015391690272E-003  4.328627702261713E-002
  0.743750011082739       1.875000027939677E-002  9.751827123901857E-003
 -3.448994020344731E-003  4.264630883666190E-002
  0.756250011269003       1.875000027939677E-002  1.333580165555506E-002
 -2.710053958433270E-003  4.197508662722178E-002
  0.768750011455268       1.875000027939677E-002  1.614243178109870E-002
 -1.967324937034440E-003  4.129641102442325E-002
  0.781250011641532       1.875000027939677E-002  1.817179056032969E-002
 -1.250551546069911E-003  4.063156657246829E-002
  0.793750011827797       1.875000027939677E-002  1.945279208277079E-002
 -5.850936889315072E-004  3.999831595614085E-002
  0.806250012014061       1.875000027939677E-002  2.003906298503880E-002
  9.488024929729059E-006  3.941033713680164E-002
  0.818750012200326       1.875000027939677E-002  2.000345801620169E-002
  5.201665570374409E-004  3.887709041812031E-002
  0.831250012386590       1.875000027939677E-002  1.943182517613533E-002
  9.404966516204773E-004  3.840405115007691E-002
  0.843750012572855       1.875000027939677E-002  1.841666090633780E-002
  1.270062296441002E-003  3.799321283065014E-002
  0.856250012759119       1.875000027939677E-002  1.705125279425633E-002
  1.513454961670727E-003  3.764375650580473E-002
  0.868750012945384       1.875000027939677E-002  1.542482178144887E-002
  1.678909004649934E-003  3.735279118681192E-002
  0.881250013131648       1.875000027939677E-002  1.361908384327089E-002
  1.776679127187326E-003  3.711608871214438E-002
  0.893750013317913       1.875000027939677E-002  1.170657322301162E-002
  1.817192517199459E-003  3.692875632406237E-002
  0.906250013504177       1.875000027939677E-002  9.750999779161846E-003
  1.808978220235276E-003  3.678580320772894E-002
  0.918750013690442       1.875000027939677E-002  7.809808726563814E-003
  1.756408457478524E-003  3.668255743970234E-002
  0.931250013876706       1.875000027939677E-002  5.938879432643518E-003
  1.657436036946338E-003  3.661487470872649E-002
  0.943750014062971       1.875000027939677E-002  4.198778794265756E-003
  1.501885718274142E-003  3.657905284380808E-002
  0.956250014249235       1.875000027939677E-002  2.660905502937302E-003
  1.271732896441708E-003  3.657134155423854E-002
  0.968750014435500       1.875000027939677E-002  1.409822601344114E-003
  9.469354498072134E-004  3.658696157430557E-002
  0.981250014621764       1.875000027939677E-002  5.348263968243146E-004
  5.258016947977740E-004  3.661876284433309E-002
  0.993750014808029       1.875000027939677E-002  1.011533915391053E-004
  8.246257610936671E-005  3.665641183402781E-002
  6.250000093132257E-003  3.125000046566129E-002  1.338351701063963E-004
 -3.462674942957703E-004  4.282861980407285E-002
  1.875000027939677E-002  3.125000046566129E-002  5.569537757371430E-004
 -8.905700457312743E-004  4.284904957414457E-002
  3.125000046566129E-002  3.125000046566129E-002  1.212813071762385E-003
 -1.205789866215284E-003  4.284880240275356E-002
  4.375000065192580E-002  3.125000046566129E-002  1.959834823403699E-003
 -1.301896976545118E-003  4.282767039748075E-002
  5.625000083819032E-002  3.125000046566129E-002  2.683494097609184E-003
 -1.221701722033777E-003  4.278580668336292E-002
  6.875000102445483E-002  3.125000046566129E-002  3.293970283345575E-003
 -1.013915960322803E-003  4.272425799197481E-002
  8.125000121071935E-002  3.125000046566129E-002  3.725398661814227E-003
 -7.223634712820463E-004  4.264475332177153E-002
  9.375000139698386E-002  3.125000046566129E-002  3.933258562981526E-003
 -3.822146712467279E-004  4.254928861464140E-002
  0.106250001583248       3.125000046566129E-002  3.890249544969032E-003
 -1.910777270542765E-005  4.243974301105582E-002
  0.118750001769513       3.125000046566129E-002  3.581516474396901E-003
  3.504739777595522E-004  4.231760918766783E-002
  0.131250001955777       3.125000046566129E-002  2.999907361162448E-003
  7.181633415049352E-004  4.218385134155823E-002
  0.143750002142042       3.125000046566129E-002  2.141743653663545E-003
  1.082242022582198E-003  4.203887552895905E-002
  0.156250002328306       3.125000046566129E-002  1.003432795860002E-003
  1.445893184432656E-003  4.188258630237931E-002
  0.168750002514571       3.125000046566129E-002 -4.208741572099317E-004
  1.815330112184079E-003  4.171450111980941E-002
  0.181250002700835       3.125000046566129E-002 -2.140505040009989E-003
  2.197979274899800E-003  4.153389574414082E-002
  0.193750002887100       3.125000046566129E-002 -4.168422182358031E-003
  2.600892434918856E-003  4.133995819429864E-002
  0.206250003073364       3.125000046566129E-002 -6.520474202094253E-003
  3.029520993769198E-003  4.113193497643048E-002
  0.218750003259629       3.125000046566129E-002 -9.213978995831819E-003
  3.486913705770254E-003  4.090926051003974E-002
  0.231250003445894       3.125000046566129E-002 -1.226589517536572E-002
  3.973317645208435E-003  4.067166769504027E-002
  0.243750003632158       3.125000046566129E-002 -1.569081527179989E-002
  4.486097775080469E-003  4.041928305012239E-002
  0.256250003818423       3.125000046566129E-002 -1.949896121158073E-002
  5.019861461914122E-003  4.015271267020085E-002
  0.268750004004687       3.125000046566129E-002 -2.369430425319551E-002
  5.566684382058679E-003  3.987312502044927E-002
  0.281250004190952       3.125000046566129E-002 -2.827288695170028E-002
  6.116370676438514E-003  3.958233380470719E-002
  0.293750004377216       3.125000046566129E-002 -3.322139954190061E-002
  6.656720243427218E-003  3.928287999626706E-002
  0.306250004563481       3.125000046566129E-002 -3.851604852662893E-002
  7.173804376653386E-003  3.897810812355990E-002
  0.318750004749745       3.125000046566129E-002 -4.412175536054809E-002
  7.652290340602884E-003  3.867222888076639E-002
  0.331250004936010       3.125000046566129E-002 -4.999178575260674E-002
  8.075916967674500E-003  3.837035637711788E-002
  0.343750005122274       3.125000046566129E-002 -5.606789718606518E-002
  8.428009917106778E-003  3.807850934594750E-002
  0.356250005308539       3.125000046566129E-002 -6.228081978616568E-002
  8.691790456422214E-003  3.780357748827534E-002
  0.368750005494803       3.125000046566129E-002 -6.855131630539452E-002
  8.851419968064675E-003  3.755320339493694E-002
  0.381250005681068       3.125000046566129E-002 -7.479261887699692E-002
  8.893124577590446E-003  3.733558992084449E-002
  0.393750005867332       3.125000046566129E-002 -8.091037729912327E-002
  8.800688801678150E-003  3.715955186233013E-002
  0.406250006053597       3.125000046566129E-002 -8.680404303393568E-002
  8.564471608410501E-003  3.703381228241313E-002
  0.418750006239861       3.125000046566129E-002 -9.237279761857455E-002
  8.180707768198858E-003  3.696662815629487E-002
  0.431250006426126       3.125000046566129E-002 -9.751936249432154E-002
  7.646360707154135E-003  3.696560926662665E-002
  0.443750006612390       3.125000046566129E-002 -0.102146274533953     
  6.950785930653007E-003  3.703826113274132E-002
  0.456250006798655       3.125000046566129E-002 -0.106157030146435     
  6.096677910553856E-003  3.718996130809313E-002
  0.468750006984919       3.125000046566129E-002 -0.109463038424879     
  5.091974460871574E-003  3.742395823366356E-002
  0.481250007171184       3.125000046566129E-002 -0.111986089262461     
  3.948307454292936E-003  3.774102985880198E-002
  0.493750007357448       3.125000046566129E-002 -0.113657760444981     
  2.675268232606305E-003  3.813967499422610E-002
  0.506250007543713       3.125000046566129E-002 -0.114419379304556     
  1.287913378230820E-003  3.861538331379664E-002
  0.518750007729977       3.125000046566129E-002 -0.114224543193653     
 -1.949185543561693E-004  3.916049907748060E-002
  0.531250007916242       3.125000046566129E-002 -0.113040263092595     
 -1.750602787581669E-003  3.976414366500462E-002
  0.543750008102506       3.125000046566129E-002 -0.110848108873629     
 -3.352273819487561E-003  4.041225294415570E-002
  0.556250008288771       3.125000046566129E-002 -0.107647355302626     
 -4.966538126171034E-003  4.108750148472519E-002
  0.568750008475035       3.125000046566129E-002 -0.103456282475621     
 -6.561483100800881E-003  4.177024567334765E-002
  0.581250008661300       3.125000046566129E-002 -9.830915277137200E-002
 -8.106704504689283E-003  4.243931749973847E-002
  0.593750008847564       3.125000046566129E-002 -9.225601487361113E-002
 -9.564844802255657E-003  4.307213378744207E-002
  0.606250009033829       3.125000046566129E-002 -8.536923174073338E-002
 -1.088726709490154E-002  4.364492417140142E-002
  0.618750009220093       3.125000046566129E-002 -7.774552545669305E-002
 -1.203210627819925E-002  4.413517402623719E-002
  0.631250009406358       3.125000046566129E-002 -6.949821374511173E-002
 -1.296647136869192E-002  4.452301423051393E-002
  0.643750009592623       3.125000046566129E-002 -6.075982994905732E-002
 -1.364584615911425E-002  4.479124330152064E-002
  0.656250009778887       3.125000046566129E-002 -5.168411470774140E-002
 -1.403920330666915E-002  4.492765251692286E-002
  0.668750009965152       3.125000046566129E-002 -4.243890568210776E-002
 -1.412434085670270E-002  4.492579144458744E-002
  0.681250010151416       3.125000046566129E-002 -3.320303261381208E-002
 -1.388872485778109E-002  4.478555156090164E-002
  0.693750010337681       3.125000046566129E-002 -2.416079307587864E-002
 -1.333490643494282E-002  4.451350473507165E-002
  0.706250010523945       3.125000046566129E-002 -1.549471519621424E-002
 -1.247973100304976E-002  4.412248783275870E-002
  0.718750010710210       3.125000046566129E-002 -7.378047660568788E-003
 -1.135574674720766E-002  4.363074973455719E-002
  0.731250010896474       3.125000046566129E-002  3.341680197224001E-005
 -1.000926342327704E-002  4.306054520045126E-002
  0.743750011082739       3.125000046566129E-002  6.608688442167952E-003
 -8.497542699401674E-003  4.243642067740484E-002
  0.756250011269003       3.125000046566129E-002  1.224778780161532E-002
 -6.884893611023981E-003  4.178337878566799E-002
  0.768750011455268       3.125000046566129E-002  1.688601879607751E-002
 -5.237730422191281E-003  4.112513520639010E-002
  0.781250011641532       3.125000046566129E-002  2.049580517905798E-002
 -3.619755500947438E-003  4.048268183699725E-002
  0.793750011827797       3.125000046566129E-002  2.308611629768841E-002
 -2.087754375021604E-003  3.987328157310317E-002
  0.806250012014061       3.125000046566129E-002  2.469961693061584E-002
 -6.882663619947977E-004  3.930994149193633E-002
  0.818750012200326       3.125000046566129E-002  2.540783530897149E-002
  5.445723814876140E-004  3.880134397054953E-002
  0.831250012386590       3.125000046566129E-002  2.530486725013158E-002
  1.589868391581493E-003  3.835215774149824E-002
  0.843750012572855       3.125000046566129E-002  2.450027539510254E-002
  2.439541616567561E-003  3.796361701285771E-002
  0.856250012759119       3.125000046566129E-002  2.311189324544418E-002
  3.096787902625641E-003  3.763425005342849E-002
  0.868750012945384       3.125000046566129E-002  2.125923942270561E-002
  3.573620338971222E-003  3.736065271140942E-002
  0.881250013131648       3.125000046566129E-002  1.905820674241942E-002
  3.887646492748895E-003  3.713822779846319E-002
  0.893750013317913       3.125000046566129E-002  1.661761440825647E-002
  4.058196176572756E-003  3.696183866603639E-002
  0.906250013504177       3.125000046566129E-002  1.403808210791684E-002
  4.101919310609509E-003  3.682634667518789E-002
  0.918750013690442       3.125000046566129E-002  1.141345962270914E-002
  4.028101000549541E-003  3.672701252943674E-002
  0.931250013876706       3.125000046566129E-002  8.834657589759085E-003
  3.834285171108582E-003  3.665974004211301E-002
  0.943750014062971       3.125000046566129E-002  6.395103638892912E-003
  3.503499802320707E-003  3.662113419562874E-002
  0.956250014249235       3.125000046566129E-002  4.196195663801625E-003
  3.005714429993802E-003  3.660835151683914E-002
  0.968750014435500       3.125000046566129E-002  2.350338029720404E-003
  2.308718666478192E-003  3.661877978747800E-002
  0.981250014621764       3.125000046566129E-002  9.796894424020921E-004
  1.408514944513649E-003  3.664978221444809E-002
  0.993750014808029       3.125000046566129E-002  2.144664041691514E-004
  3.977542554455538E-004  3.669919537004721E-002
  6.250000093132257E-003  4.375000065192580E-002  1.530497049549238E-004
 -6.331375433558318E-004  4.284633551364828E-002
  1.875000027939677E-002  4.375000065192580E-002  6.224771085171042E-004
 -1.496195032007320E-003  4.286882556212716E-002
  3.125000046566129E-002  4.375000065192580E-002  1.320446454709983E-003
 -1.953907388044987E-003  4.286806197782639E-002
  4.375000065192580E-002  4.375000065192580E-002  2.075247013038216E-003
 -2.055498373155415E-003  4.284568575400619E-002
  5.625000083819032E-002  4.375000065192580E-002  2.756586407022411E-003
 -1.872998586724171E-003  4.280313188513098E-002